# Time                DetFlux         DetFluxErr      Model
2457854.5299785533    1.0001660779    0.0004049404    1.0000000000
2457854.5308697042    1.0005650594    0.0004053324    1.0000000000
2457854.5316682677    0.9990635547    0.0004180379    1.0000000000
2457854.5323048043    0.9999883971    0.0004235365    1.0000000000
2457854.5329297669    0.9995978613    0.0003938434    1.0000000000
2457854.5335778766    0.9999459602    0.0004127718    1.0000000000
2457854.5342144128    1.0001249999    0.0004087904    1.0000000000
2457854.5348393759    1.0001481544    0.0004184454    1.0000000000
2457854.5354874851    1.0001361114    0.0004310588    1.0000000000
2457854.5361240217    0.9993435440    0.0004070299    1.0000000000
2457854.5367721310    0.9992078256    0.0004075126    1.0000000000
2457854.5374086676    1.0001721811    0.0004055859    1.0000000000
2457854.5380452038    0.9997191434    0.0004172450    1.0000000000
2457854.5386817399    1.0000396669    0.0004202616    1.0000000000
2457854.5393182761    1.0005536175    0.0004185935    1.0000000000
2457854.5399548123    0.9999431936    0.0003943523    1.0000000000
2457854.5405913484    1.0005086925    0.0004215070    1.0000000000
2457854.5412278846    0.9999674606    0.0003929425    1.0000000000
2457854.5418644208    0.9996468609    0.0004092258    1.0000000000
2457854.5425009569    1.0007568863    0.0004148140    1.0000000000
2457854.5431374931    1.0003231553    0.0004175498    1.0000000000
2457854.5437856028    0.9996534120    0.0004112165    1.0000000000
2457854.5444221389    0.9998956869    0.0004079806    1.0000000000
2457854.5450586751    1.0002085213    0.0004216983    1.0000000000
2457854.5456952113    0.9997000278    0.0004121424    1.0000000000
2457854.5463317474    1.0004217228    0.0004064364    1.0000000000
2457854.5469798571    0.9997491138    0.0004072154    1.0000000000
2457854.5476279669    0.9999172530    0.0004096883    1.0000000000
2457854.5482876496    1.0008113839    0.0004056961    1.0000000000
2457854.5489589060    0.9997746760    0.0003987751    1.0000000000
2457854.5496185888    1.0002288495    0.0004133656    1.0000000000
2457854.5502782715    0.9995334225    0.0004111482    1.0000000000
2457854.5509379548    1.0001893884    0.0004138026    1.0000000000
2457854.5516092111    1.0001668051    0.0004166234    1.0000000000
2457854.5522920405    0.9998917865    0.0004093191    1.0000000000
2457854.5529748704    0.9997600683    0.0004215549    1.0000000000
2457854.5536576998    0.9997649637    0.0004089011    1.0000000000
2457854.5543521028    0.9999635795    0.0004173014    1.0000000000
2457854.5550349327    0.9997813012    0.0004219180    1.0000000000
2457854.5557177626    1.0003148756    0.0004196864    1.0000000000
2457854.5564005920    1.0000133383    0.0004063070    1.0000000000
2457854.5570834219    1.0002080391    0.0004068965    1.0000000000
2457854.5577662513    0.9998817553    0.0004241037    1.0000000000
2457854.5584606542    0.9995227190    0.0004284226    1.0000000000
2457854.5591550572    1.0000834268    0.0003888169    1.0000000000
2457854.5598378871    0.9993467889    0.0004221630    1.0000000000
2457854.5605207165    1.0003797503    0.0004172755    1.0000000000
2457854.5612151194    1.0001488594    0.0004076390    1.0000000000
2457854.5618979493    0.9999390669    0.0004047493    1.0000000000
2457854.5625923523    1.0002700728    0.0004185000    1.0000000000
2457854.5632983283    0.9997971198    0.0004024182    1.0000000000
2457854.5640158784    0.9997971831    0.0004104189    1.0000000000
2457854.5647334279    1.0002184851    0.0004084178    1.0000000000
2457854.5654625511    1.0001140505    0.0004213673    1.0000000000
2457854.5661916742    0.9998234241    0.0004113421    0.9998235169
2457854.5669207973    0.9993408316    0.0004047576    0.9991472169
2457854.5676499205    0.9985758807    0.0004214782    0.9981529275
2457854.5683790436    0.9966324856    0.0004136971    0.9969232427
2457854.5691081667    0.9954520711    0.0004126186    0.9955098146
2457854.5698372899    0.9937091403    0.0004057277    0.9939547992
2457854.5705779861    0.9926655277    0.0004021440    0.9922722596
2457854.5712955361    0.9904839833    0.0003991477    0.9905690565
2457854.5720362323    0.9887613808    0.0004123119    0.9887746790
2457854.5727537819    0.9870266232    0.0003954484    0.9870319281
2457854.5734713315    0.9854548458    0.0004066519    0.9853197565
2457854.5741773080    0.9836214743    0.0004108550    0.9836897156
2457854.5748832845    0.9819386865    0.0004003054    0.9821447477
2457854.5755892606    0.9804990601    0.0004061035    0.9807334238
2457854.5762952371    0.9795230430    0.0004036166    0.9794979384
2457854.5769896396    0.9786876644    0.0004219907    0.9785585389
2457854.5776724694    0.9778771854    0.0003964980    0.9779314934
2457854.5783552988    0.9774345408    0.0004160705    0.9774850831
2457854.5790497018    0.9772516774    0.0003955147    0.9770983854
2457854.5797325312    0.9770906964    0.0003950072    0.9767655096
2457854.5804269342    0.9766664393    0.0004012295    0.9764651851
2457854.5811097636    0.9760331785    0.0003968636    0.9761993974
2457854.5817925930    0.9754000404    0.0003992205    0.9759640362
2457854.5824869960    0.9757978056    0.0003988087    0.9757461050
2457854.5831698254    0.9757804539    0.0004126889    0.9755547440
2457854.5838410812    0.9751511601    0.0004139658    0.9753870943
2457854.5845007640    0.9750057549    0.0003847869    0.9752399046
2457854.5851604468    0.9751300462    0.0004095134    0.9751129547
2457854.5858201296    0.9754170070    0.0004000124    0.9750001225
2457854.5864798124    0.9746034784    0.0003934765    0.9749013012
2457854.5871394947    0.9745523812    0.0003985752    0.9748176463
2457854.5878107511    0.9748008942    0.0004071380    0.9747476967
2457854.5884704334    0.9749940607    0.0003794660    0.9746914809
2457854.5891301162    0.9747753586    0.0004034987    0.9746483839
2457854.5897897989    0.9743816819    0.0004179456    0.9746176417
2457854.5904263346    0.9740485397    0.0003890834    0.9746009880
2457854.5910628708    0.9746971505    0.0004005313    0.9745959202
2457854.5916878334    0.9741489200    0.0004100195    0.9746028557
2457854.5923012225    0.9753421391    0.0004012175    0.9746198706
2457854.5929146116    0.9745302671    0.0003952033    0.9746487971
2457854.5935280006    0.9749546605    0.0003812459    0.9746906933
2457854.5941413897    0.9743726656    0.0004078302    0.9747418478
2457854.5947547788    0.9748099476    0.0003902676    0.9748044070
2457854.5953681679    0.9745551405    0.0004092827    0.9748775954
2457854.5959815569    0.9750297514    0.0003955976    0.9749662772
2457854.5965949460    0.9751834031    0.0003815878    0.9750670650
2457854.5972083355    0.9756588703    0.0003929894    0.9751797241
2457854.5978217246    0.9759105316    0.0004042110    0.9753085897
2457854.5984351137    0.9750632361    0.0003985305    0.9754530020
2457854.5990600758    0.9753696678    0.0003781051    0.9756152918
2457854.5996734649    0.9756671736    0.0004026302    0.9757954287
2457854.6002868540    0.9761447938    0.0004104854    0.9759898608
2457854.6009002430    0.9764611527    0.0003898378    0.9762041371
2457854.6015136321    0.9768105912    0.0004048387    0.9764411170
2457854.6021270212    0.9767891074    0.0003942203    0.9767039191
2457854.6027404102    0.9770944385    0.0004140929    0.9769914621
2457854.6033537993    0.9771795423    0.0004059501    0.9773125599
2457854.6039671884    0.9773842248    0.0004118543    0.9776792619
2457854.6045921510    0.9775672791    0.0003886327    0.9781287971
2457854.6052055401    0.9788613049    0.0004080604    0.9787747355
2457854.6058189292    0.9801692689    0.0004078736    0.9796754681
2457854.6064323182    0.9809324143    0.0004009338    0.9807661277
2457854.6070457073    0.9815160307    0.0004122868    0.9819900475
2457854.6076590964    0.9830203927    0.0003914553    0.9833151408
2457854.6082609119    0.9850645675    0.0003953371    0.9846866011
2457854.6088511543    0.9860364943    0.0004013575    0.9860793570
2457854.6094413963    0.9879280761    0.0004137272    0.9875031898
2457854.6100316388    0.9886576361    0.0003991025    0.9889362828
2457854.6106218812    0.9905593609    0.0003941482    0.9903623302
2457854.6112236967    0.9916577611    0.0004126694    0.9917970178
2457854.6118139387    0.9925294755    0.0004115900    0.9931644188
2457854.6124041812    0.9947228277    0.0004103543    0.9944735699
2457854.6129944236    0.9961151349    0.0004193618    0.9957098236
2457854.6135846656    0.9963554284    0.0004182659    0.9968469759
2457854.6141749080    0.9982126709    0.0004126376    0.9978686583
2457854.6147651500    0.9984074526    0.0004088600    0.9987458841
2457854.6153553925    0.9996515751    0.0004117619    0.9994399436
2457854.6159456349    0.9998732213    0.0003993445    0.9998996746
2457854.6165358769    1.0003281799    0.0004150553    1.0000000000
2457854.6171261193    0.9986397327    0.0004143792    1.0000000000
2457854.6177163613    0.9994938523    0.0004067474    1.0000000000
2457854.6183066037    0.9999754277    0.0004196129    1.0000000000
2457854.6189084193    0.9998367254    0.0004119902    1.0000000000
2457854.6194986613    1.0006026724    0.0004137698    1.0000000000
2457854.6200889037    1.0010836122    0.0004233029    1.0000000000
2457854.6206791457    1.0004833847    0.0004070272    1.0000000000
2457854.6212693881    1.0002615046    0.0004128690    1.0000000000
2457854.6218596301    0.9997579895    0.0004089124    1.0000000000
2457854.6224498725    0.9995423252    0.0004155868    1.0000000000
2457854.6230401145    1.0000580610    0.0004293293    1.0000000000
2457854.6236303570    1.0003170521    0.0004217102    1.0000000000
2457854.6242205990    1.0000728136    0.0004177719    1.0000000000
2457854.6248108414    1.0005322853    0.0004213857    1.0000000000
2457854.6254010834    0.9993994536    0.0004098586    1.0000000000
2457854.6259913258    0.9999029602    0.0003988151    1.0000000000
2457854.6265815678    1.0002802178    0.0004305395    1.0000000000
2457854.6271833833    1.0001277320    0.0003903669    1.0000000000
2457854.6277736253    0.9997555511    0.0004125228    1.0000000000
2457854.6283638678    1.0000351550    0.0004117767    1.0000000000
2457854.6289541097    0.9994727216    0.0004148961    1.0000000000
2457854.6295443522    0.9999784799    0.0004164839    1.0000000000
2457854.6301345942    1.0001423504    0.0004041814    1.0000000000
2457854.6307248361    0.9990315552    0.0004019937    1.0000000000
2457854.6313150786    1.0005811891    0.0003987908    1.0000000000
2457854.6319053206    0.9994288296    0.0004044557    1.0000000000
2457854.6324955630    1.0003956525    0.0004197570    1.0000000000
2457854.6330973785    0.9996824317    0.0004261571    1.0000000000
2457854.6336876205    0.9995869639    0.0004105946    1.0000000000
2457854.6342778625    1.0003349256    0.0004001251    1.0000000000
2457854.6348681049    1.0001087986    0.0004196734    1.0000000000
2457854.6354583469    0.9998824967    0.0004170298    1.0000000000
2457854.6360485889    1.0003580978    0.0004075188    1.0000000000
2457854.6366388313    1.0001708388    0.0003931766    1.0000000000
2457854.6372290733    0.9998982886    0.0004096657    1.0000000000
2457854.6378193153    1.0002686441    0.0003969623    1.0000000000
2457854.6384095573    1.0006635639    0.0004148939    1.0000000000
2457854.6389997997    0.9996964925    0.0004278842    1.0000000000
2457854.6395900417    0.9999358292    0.0004001809    1.0000000000
2457854.6401802837    0.9993691880    0.0004075398    1.0000000000
2457854.6407705261    1.0002198879    0.0004136667    1.0000000000
2457854.6413607681    1.0003219806    0.0004188200    1.0000000000
2457854.6419510101    1.0010212525    0.0004039525    1.0000000000
2457854.6425528256    0.9997163715    0.0004211892    1.0000000000
2457854.6431430676    0.9994908775    0.0004220380    1.0000000000
2457854.6437333096    1.0000016257    0.0003981690    1.0000000000
2457854.6443235520    1.0002235453    0.0004146873    1.0000000000
2457854.6449137940    0.9999683112    0.0004041507    1.0000000000
2457854.6455040360    1.0003705175    0.0004136955    1.0000000000
2457854.6460942780    1.0000927556    0.0004323068    1.0000000000
2457854.6466960935    0.9994993581    0.0004133789    1.0000000000
2457854.6472863355    0.9993030008    0.0004119718    1.0000000000
2457854.6478765779    1.0010845438    0.0003933784    1.0000000000
2457854.6484668199    0.9991421714    0.0003981027    1.0000000000
2457854.6490570619    0.9999828624    0.0004188738    1.0000000000
2457854.6496473039    1.0004718309    0.0004224365    1.0000000000
2457854.6502491194    0.9999699526    0.0004013392    1.0000000000
2457854.6508393614    1.0001152293    0.0004070981    1.0000000000
2457854.6514296033    1.0006281574    0.0004150792    1.0000000000
2457854.6520198453    0.9996422924    0.0004181912    1.0000000000
2457854.6526100873    1.0002184720    0.0004210429    1.0000000000
2457854.6532003297    0.9996453628    0.0004016802    1.0000000000
2457854.6537905717    0.9999705367    0.0004035771    1.0000000000
